data_63600-ICSD

_audit_creation_date               103-01-30
_audit_creation_method             'generated by DC'

_database_code_ICSD                63600

_chemical_name_systematic          
;
Lanthanum boride (1/5.89) - prepared at 1800 deg C
;
_chemical_formula_structural       'La B5.89'
_chemical_formula_analytical       'La B6.82'
_chemical_formula_sum              'B5.89 La'

_publ_section_title                
;
The structure of high-temperature solution-grown LaB~6~: A single-
crystal diffractometry study.
;
loop_
_publ_author_name                  
  'Korsukova, M M'
  'Gurin, V N'
  'Lundstroem, T'
  'Tergenius, L-E'
_journal_name_full                 'Journal of the Less-Common Metals'
_journal_coden_ASTM                JCOMAH
_journal_volume                    117
_journal_year                      1986
_journal_page_first                73
_journal_page_last                 81

_cell_length_a                     4.1571(1)
_cell_length_b                     4.1571(1)
_cell_length_c                     4.1571(1)
_cell_angle_alpha                  90
_cell_angle_beta                   90
_cell_angle_gamma                  90
_cell_volume                       71.8
_cell_formula_units_Z              1

_symmetry_space_group_name_H-M     'P m 3 m'
_symmetry_Int_Tables_number        221
_symmetry_cell_setting             cubic

loop_
_symmetry_equiv_pos_as_xyz         
  'x,y,z'
  'y,z,x'
  'z,x,y'
  'x,z,y'
  'y,x,z'
  'z,y,x'
  'x,-y,-z'
  'y,-z,-x'
  'z,-x,-y'
  'x,-z,-y'
  'y,-x,-z'
  'z,-y,-x'
  '-x,y,-z'
  '-y,z,-x'
  '-z,x,-y'
  '-x,z,-y'
  '-y,x,-z'
  '-z,y,-x'
  '-x,-y,z'
  '-y,-z,x'
  '-z,-x,y'
  '-x,-z,y'
  '-y,-x,z'
  '-z,-y,x'
  '-x,-y,-z'
  '-y,-z,-x'
  '-z,-x,-y'
  '-x,-z,-y'
  '-y,-x,-z'
  '-z,-y,-x'
  '-x,y,z'
  '-y,z,x'
  '-z,x,y'
  '-x,z,y'
  '-y,x,z'
  '-z,y,x'
  'x,-y,z'
  'y,-z,x'
  'z,-x,y'
  'x,-z,y'
  'y,-x,z'
  'z,-y,x'
  'x,y,-z'
  'y,z,-x'
  'z,x,-y'
  'x,z,-y'
  'y,x,-z'
  'z,y,-x'

loop_
_atom_type_symbol
_atom_type_oxidation_number
  La0    0.000
  B0     0.000

loop_
_atom_site_label
_atom_site_type_symbol
_atom_site_symmetry_multiplicity
_atom_site_Wyckoff_symbol
_atom_site_fract_x
_atom_site_fract_y
_atom_site_fract_z
_atom_site_occupancy
_atom_site_attached_hydrogens
_atom_site_calc_flag
  La1   La0    1 a 0. 0. 0. 1.  0 d
  B1    B0     6 f 0.19948(14) 0.5 0.5 0.982(5)  0 d

loop_
_atom_site_aniso_label
_atom_site_aniso_U_11
_atom_site_aniso_U_12
_atom_site_aniso_U_13
_atom_site_aniso_U_22
_atom_site_aniso_U_23
_atom_site_aniso_U_33
  B1    0.0031(2) 0. 0. 0.0046(1) 0. 0.0046(1)

_refine_ls_R_factor_all            0.0206

